version 3
run General-0-20250925-01:54:03-1964
attr configname General
attr datetime 20250925-01:54:03
attr datetimef 20250925-015403
attr experiment General
attr inifile omnetpp.ini
attr iterationvars ""
attr iterationvarsd ""
attr iterationvarsf ""
attr measurement ""
attr network peyal.TrustSMTPNetwork
attr processid 1964
attr repetition 0
attr replication #0
attr resultdir results/General-20250925-015403
attr runnumber 0
attr seedset 0
config network peyal.TrustSMTPNetwork
config ned-path .;../src
config sim-time-limit 60s
config user-interface Cmdenv
config result-dir results/General-20250925-015403
config *.tm.dropThreshold 0.3
config *.hostA.sendInterval 2s
config *.hostA.initialTrustScore 0.9
config *.hostB.sendInterval 0.6s
config *.hostB.initialTrustScore 0.2
config record-eventlog true
config **.vector-recording true
config **.scalar-recording true

vector 0 TrustSMTPNetwork.srvB srv_hostB_arrivalTimes ETV
0	7	1.099627004609	1.099627004609
0	16	3.099627004609	3.099627004609
0	25	5.099627004609	5.099627004609
0	36	7.099627004609	7.099627004609
0	45	9.099627004609	9.099627004609
0	54	11.099627004609	11.099627004609
0	65	13.099627004609	13.099627004609
0	74	15.099627004609	15.099627004609
0	83	17.099627004609	17.099627004609
0	94	19.099627004609	19.099627004609
0	103	21.099627004609	21.099627004609
0	112	23.099627004609	23.099627004609
0	123	25.099627004609	25.099627004609
0	132	27.099627004609	27.099627004609
0	141	29.099627004609	29.099627004609
0	152	31.099627004609	31.099627004609
0	161	33.099627004609	33.099627004609
0	170	35.099627004609	35.099627004609
0	181	37.099627004609	37.099627004609
0	190	39.099627004609	39.099627004609
0	199	41.099627004609	41.099627004609
0	210	43.099627004609	43.099627004609
0	219	45.099627004609	45.099627004609
0	228	47.099627004609	47.099627004609
0	239	49.099627004609	49.099627004609
0	248	51.099627004609	51.099627004609
0	257	53.099627004609	53.099627004609
0	268	55.099627004609	55.099627004609
0	277	57.099627004609	57.099627004609
0	286	59.099627004609	59.099627004609

