version 3
run Qtenv-0-20251029-21:09:57-9100
attr configname Qtenv
attr datetime 20251029-21:09:57
attr datetimef 20251029-210957
attr experiment Qtenv
attr inifile omnetpp.ini
attr iterationvars ""
attr iterationvarsd ""
attr iterationvarsf ""
attr measurement ""
attr network peyal.TrustSMTPNetwork
attr processid 9100
attr repetition 0
attr replication #0
attr resultdir results/Qtenv-20251029-210957
attr runnumber 0
attr seedset 0
config network peyal.TrustSMTPNetwork
config ned-path .;../src
config sim-time-limit 60s
config user-interface Qtenv
config result-dir results/Qtenv-20251029-210957
config *.tm.dropThreshold 0.3
config *.hostA.sendInterval 4s
config *.hostA.initialTrustScore 0.9
config *.hostB.sendInterval 2s
config *.hostB.initialTrustScore 0.2
config "*.hostA.@display(\"p" "100,100;i=block/email;is=email\");"
config "*.hostB.@display(\"p" "500,100;i=block/email;is=email\");"
config "*.srvA.@display(\"p" "100,300;i=block/server;is=server\");"
config "*.srvB.@display(\"p" "500,300;i=block/server;is=server\");"
config "*.tm.@display(\"p" "300,200;i=block/firewall;is=firewall\");"
config record-eventlog true
config **.vector-recording true
config **.scalar-recording true

vector 0 TrustSMTPNetwork.srvB srv_hostB_commandTimes ETV
vector 1 TrustSMTPNetwork.srvB srv_hostB_arrivalTimes ETV
vector 2 TrustSMTPNetwork.srvA srv_hostA_commandTimes ETV
vector 3 TrustSMTPNetwork.srvA srv_hostA_arrivalTimes ETV
0	3	1.286689232778	1.286689232778
0	11	2.286689232778	2.286689232778
0	27	3.286689232778	3.286689232778
0	38	4.286689232778	4.286689232778
0	43	5.286689232778	5.286689232778
0	51	6.286689232778	6.286689232778
0	67	7.286689232778	7.286689232778
0	78	8.286689232778	8.286689232778
0	83	9.286689232778	9.286689232778
0	91	10.286689232778	10.286689232778
0	107	11.286689232778	11.286689232778
0	118	12.286689232778	12.286689232778
0	123	13.286689232778	13.286689232778
0	131	14.286689232778	14.286689232778
0	147	15.286689232778	15.286689232778
0	158	16.286689232778	16.286689232778
0	163	17.286689232778	17.286689232778
0	171	18.286689232778	18.286689232778
0	187	19.286689232778	19.286689232778
0	198	20.286689232778	20.286689232778
0	203	21.286689232778	21.286689232778
0	211	22.286689232778	22.286689232778
0	227	23.286689232778	23.286689232778
0	238	24.286689232778	24.286689232778
0	243	25.286689232778	25.286689232778
0	251	26.286689232778	26.286689232778
0	267	27.286689232778	27.286689232778
0	278	28.286689232778	28.286689232778
0	283	29.286689232778	29.286689232778
0	291	30.286689232778	30.286689232778
0	307	31.286689232778	31.286689232778
0	318	32.286689232778	32.286689232778
0	323	33.286689232778	33.286689232778
0	331	34.286689232778	34.286689232778
0	347	35.286689232778	35.286689232778
0	358	36.286689232778	36.286689232778
0	363	37.286689232778	37.286689232778
0	371	38.286689232778	38.286689232778
0	387	39.286689232778	39.286689232778
0	398	40.286689232778	40.286689232778
0	403	41.286689232778	41.286689232778
0	411	42.286689232778	42.286689232778
0	427	43.286689232778	43.286689232778
0	438	44.286689232778	44.286689232778
0	443	45.286689232778	45.286689232778
0	451	46.286689232778	46.286689232778
0	467	47.286689232778	47.286689232778
0	478	48.286689232778	48.286689232778
0	483	49.286689232778	49.286689232778
0	491	50.286689232778	50.286689232778
0	507	51.286689232778	51.286689232778
0	518	52.286689232778	52.286689232778
0	523	53.286689232778	53.286689232778
0	531	54.286689232778	54.286689232778
0	547	55.286689232778	55.286689232778
0	558	56.286689232778	56.286689232778
0	563	57.286689232778	57.286689232778
0	571	58.286689232778	58.286689232778
0	587	59.286689232778	59.286689232778
1	6	1.786689232778	1.786689232778
1	21	2.798254009217	2.798254009217
1	33	3.786689232778	3.786689232778
1	46	5.786689232778	5.786689232778
1	61	6.798254009217	6.798254009217
1	73	7.786689232778	7.786689232778
1	86	9.786689232778	9.786689232778
1	101	10.798254009217	10.798254009217
1	113	11.786689232778	11.786689232778
1	126	13.786689232778	13.786689232778
1	141	14.798254009217	14.798254009217
1	153	15.786689232778	15.786689232778
1	166	17.786689232778	17.786689232778
1	181	18.798254009217	18.798254009217
1	193	19.786689232778	19.786689232778
1	206	21.786689232778	21.786689232778
1	221	22.798254009217	22.798254009217
1	233	23.786689232778	23.786689232778
1	246	25.786689232778	25.786689232778
1	261	26.798254009217	26.798254009217
1	273	27.786689232778	27.786689232778
1	286	29.786689232778	29.786689232778
1	301	30.798254009217	30.798254009217
1	313	31.786689232778	31.786689232778
1	326	33.786689232778	33.786689232778
1	341	34.798254009217	34.798254009217
1	353	35.786689232778	35.786689232778
1	366	37.786689232778	37.786689232778
1	381	38.798254009217	38.798254009217
1	393	39.786689232778	39.786689232778
1	406	41.786689232778	41.786689232778
1	421	42.798254009217	42.798254009217
1	433	43.786689232778	43.786689232778
1	446	45.786689232778	45.786689232778
1	461	46.798254009217	46.798254009217
1	473	47.786689232778	47.786689232778
1	486	49.786689232778	49.786689232778
1	501	50.798254009217	50.798254009217
1	513	51.786689232778	51.786689232778
1	526	53.786689232778	53.786689232778
1	541	54.798254009217	54.798254009217
1	553	55.786689232778	55.786689232778
1	566	57.786689232778	57.786689232778
1	581	58.798254009217	58.798254009217
1	593	59.786689232778	59.786689232778
2	14	2.296254009217	2.296254009217
2	30	3.296254009217	3.296254009217
2	54	6.296254009217	6.296254009217
2	70	7.296254009217	7.296254009217
2	94	10.296254009217	10.296254009217
2	110	11.296254009217	11.296254009217
2	134	14.296254009217	14.296254009217
2	150	15.296254009217	15.296254009217
2	174	18.296254009217	18.296254009217
2	190	19.296254009217	19.296254009217
2	214	22.296254009217	22.296254009217
2	230	23.296254009217	23.296254009217
2	254	26.296254009217	26.296254009217
2	270	27.296254009217	27.296254009217
2	294	30.296254009217	30.296254009217
2	310	31.296254009217	31.296254009217
2	334	34.296254009217	34.296254009217
2	350	35.296254009217	35.296254009217
2	374	38.296254009217	38.296254009217
2	390	39.296254009217	39.296254009217
2	414	42.296254009217	42.296254009217
2	430	43.296254009217	43.296254009217
2	454	46.296254009217	46.296254009217
2	470	47.296254009217	47.296254009217
2	494	50.296254009217	50.296254009217
2	510	51.296254009217	51.296254009217
2	534	54.296254009217	54.296254009217
2	550	55.296254009217	55.296254009217
2	574	58.296254009217	58.296254009217
2	590	59.296254009217	59.296254009217
3	18	2.796254009217	2.796254009217
3	58	6.796254009217	6.796254009217
3	98	10.796254009217	10.796254009217
3	138	14.796254009217	14.796254009217
3	178	18.796254009217	18.796254009217
3	218	22.796254009217	22.796254009217
3	258	26.796254009217	26.796254009217
3	298	30.796254009217	30.796254009217
3	338	34.796254009217	34.796254009217
3	378	38.796254009217	38.796254009217
3	418	42.796254009217	42.796254009217
3	458	46.796254009217	46.796254009217
3	498	50.796254009217	50.796254009217
3	538	54.796254009217	54.796254009217
3	578	58.796254009217	58.796254009217

